! TOUCHSTONE file generated by CST MICROWAVE STUDIO
! Date and time: Thu Jun 18 03:57:25 2020
! Project name: 18_June_2_vivaldi_Gen1_top_bottom20cm_trial1a.cst
! Parameters = {DL_X1=27; DL_X2=6; DL_Y1=-142; DL_Y2=-114; DL_thickness=0.5; DL_tip_pos=-142; DL_zenith=-80; Gt=0.01; R=10; Rline2_pos=-115; Rline_pos=-140; St=1.57; Ws=180; Z_port=130; bottom_stripW=40; bumpR=12; bumpX=21; bumpY=-18; circleR=25; esosorbT=3.2; esosorbW=15; feed_pos=14; feed_slot1_pos=4; feed_slot1_width=2; feed_slot2_pos=12; feed_slot2_width=2; feed_x1=0.7; feed_x2=1.2; feed_x3=6; feed_x4=9; feed_x5=32; feed_y3=4; feed_y4=6; gndX1=5; gndX2=15; gndY1=6; gndY2=11; gnd_slotW=1.5; gnd_slotW2=2; gnd_slot_pos=3; gnd_slot_pos2=8; l=160; le=90; lumpedR=150; lumpedR2=100; p1x=10; p1y=-160; p2x=1; p2y=-50; p3x=70; p3y=-70; p4x=35; p4y=-45; port_position=20; rect_slotL=17; slotW=1; slot_newW=1; top_stripW=3; via_hole_rad=0.5; wstrip=1.9}
! Header version: 2015
! Port assignment regex: !\s*Touchstone port\s*([0-9]+)\s*=\s*CST MWS port\s*([0-9]+)\s*\(\"(.*)\"\)(\s*mode\s*([0-9]+))?.*
! Touchstone port assignment:
! Touchstone port 1 = CST MWS port 1 ("")
! Touchstone port 2 = CST MWS port 2 ("")
# GHz S MA R 50
0                       0.766165               0      7.81502e-05               0      0.000124579               0         0.766214               0
0.01                    0.766314        -1.95338      0.000184017         65.8142      0.000201167         52.9685         0.766362          -1.954
0.02                    0.766744        -3.91779       0.00034938         78.6816      0.000347048         71.1069          0.76679        -3.91898
0.03                    0.767413        -5.90361      0.000533363         83.3504      0.000519373         78.6233         0.767454        -5.90528
0.04                    0.768251        -7.92001      0.000735328         85.2525      0.000713336         82.1465         0.768286        -7.92204
0.05                    0.769172        -9.97457      0.000955009         85.6521      0.000927399         83.5474           0.7692        -9.97681
0.06                    0.770075         -12.073       0.00119035         85.0713       0.00115888         83.6161         0.770096        -12.0753
0.07                    0.770859        -14.2192       0.00143782         83.8315       0.00140381         82.8112         0.770874        -14.2215
0.08                    0.771425        -16.4154       0.00169313         82.1787       0.00165755         81.4568         0.771435        -16.4175
0.09                    0.771686        -18.6624       0.00195209         80.3189       0.00191566         79.8067         0.771692        -18.6642
0.1                     0.771567          -20.96        0.0022115         78.4305       0.00217471         78.0691          0.77157        -20.9616
0.11                     0.77101        -23.3075       0.00247002         76.6672       0.00243318         76.4173         0.771012        -23.3088
0.12                    0.769976        -25.7041       0.00272907         75.1557       0.00269236          74.991         0.769978        -25.7052
0.13                    0.768439        -28.1495       0.00299359         73.9879       0.00295709         73.8907         0.768442        -28.1504
0.14                    0.766389        -30.6439       0.00327259          73.209       0.00323629         73.1671         0.766394        -30.6446
0.15                    0.763824        -33.1885       0.00357921         72.8036       0.00354309          72.808          0.76383        -33.1891
0.16                    0.760745        -35.7857       0.00393013          72.688       0.00389415         72.7314         0.760753        -35.7863
0.17                    0.757157        -38.4389       0.00434427         72.7165       0.00430842          72.792         0.757166        -38.4395
0.18                    0.753057        -41.1527       0.00484096         72.7054       0.00480525         72.8057         0.753067        -41.1534
0.19                    0.748436        -43.9329       0.00543819         72.4692       0.00540263          72.587         0.748448        -43.9336
0.2                     0.743277        -46.7858       0.00615148         71.8558       0.00611609         71.9841         0.743289        -46.7866
0.21                    0.737548        -49.7186       0.00699367         70.7659       0.00695845         70.8988         0.737561        -49.7195
0.22                    0.731212        -52.7388       0.00797553         69.1551       0.00794049         69.2877         0.731225        -52.7397
0.23                    0.724216        -55.8543       0.00910683         67.0217       0.00907193         67.1504         0.724231        -55.8552
0.24                    0.716506        -59.0729        0.0103974         64.3909        0.0103626         64.5132         0.716521        -59.0738
0.25                    0.708019        -62.4027        0.0118582         61.2996        0.0118234          61.414         0.708036        -62.4037
0.26                    0.698691         -65.852        0.0135015         57.7862        0.0134666         57.8918          0.69871        -65.8531
0.27                     0.68846        -69.4292        0.0153418          53.884        0.0153067         53.9805         0.688482        -69.4304
0.28                    0.677267         -73.143        0.0173947         49.6187        0.0173592          49.706         0.677292        -73.1444
0.29                    0.665056        -77.0027         0.019677         45.0078        0.0196408         45.0863         0.665084        -77.0045
0.3                     0.651781        -81.0185         0.022205         40.0624        0.0221679         40.1326         0.651812        -81.0206
0.31                    0.637401        -85.2012        0.0249936          34.789        0.0249554         34.8514         0.637434        -85.2039
0.32                    0.621885        -89.5631        0.0280544         29.1913         0.028015         29.2466          0.62192        -89.5664
0.33                    0.605214        -94.1174        0.0313941         23.2731        0.0313532         23.3219         0.605249        -94.1214
0.34                    0.587378        -98.8789        0.0350127         17.0394        0.0349701         17.0824         0.587413        -98.8837
0.35                    0.568387        -103.864        0.0389016          10.498        0.0388572         10.5357         0.568421        -103.869
0.36                     0.54827        -109.089        0.0430424         3.66023        0.0429962         3.69318         0.548302        -109.096
0.37                    0.527082        -114.575        0.0474061        -3.45869         0.047358        -3.42996         0.527113        -114.582
0.38                    0.504911         -120.34        0.0519522        -10.8393        0.0519025        -10.8144          0.50494        -120.349
0.39                    0.481885        -126.409        0.0566298        -18.4583        0.0565785        -18.4368         0.481913        -126.418
0.4                     0.458181        -132.803        0.0613777        -26.2885        0.0613252        -26.2701         0.458209        -132.814
0.41                    0.434029        -139.549        0.0661276        -34.2996        0.0660741        -34.2841         0.434057        -139.561
0.42                    0.409714        -146.673        0.0708062        -42.4588        0.0707521        -42.4459         0.409743        -146.686
0.43                    0.385579        -154.202        0.0753389        -50.7311        0.0752846        -50.7207          0.38561        -154.217
0.44                    0.362018        -162.161        0.0796542        -59.0807        0.0796003        -59.0726         0.362051        -162.179
0.45                    0.339464        -170.571        0.0836872        -67.4717         0.083634        -67.4659         0.339501        -170.592
0.46                    0.318371        -179.442        0.0873831        -75.8693        0.0873312        -75.8654         0.318412        -179.466
0.47                    0.299191         171.237        0.0907001        -84.2403        0.0906498        -84.2384         0.299236         171.209
0.48                    0.282332         161.502        0.0936106        -92.5544        0.0935623        -92.5545         0.282382         161.471
0.49                    0.268125          151.43        0.0961015        -100.785        0.0960557        -100.787          0.26818         151.394
0.5                     0.256779         141.137        0.0981738        -108.909        0.0981307        -108.912         0.256839         141.097
0.51                     0.24835         130.776        0.0998405        -116.907        0.0998003        -116.913         0.248414         130.731
0.52                    0.242727         120.519         0.101124        -124.766         0.101087        -124.772         0.242794         120.471
0.53                    0.239648         110.535         0.102056        -132.473         0.102022        -132.481         0.239716         110.483
0.54                    0.238738         100.966          0.10267        -140.022          0.10264        -140.032         0.238805         100.911
0.55                     0.23956         91.9125         0.103005         -147.41         0.102978        -147.421         0.239622         91.8537
0.56                    0.241668         83.4297           0.1031        -154.635         0.103077        -154.648         0.241721         83.3685
0.57                    0.244642         75.5345         0.102993        -161.699         0.102973        -161.713         0.244683         75.4712
0.58                    0.248118          68.214         0.102721        -168.605         0.102704        -168.621         0.248144         68.1491
0.59                    0.251793         61.4364         0.102317        -175.359         0.102304        -175.376         0.251799         61.3704
0.6                     0.255424         55.1599         0.101813         178.033         0.101803         178.014         0.255408         55.0935
0.61                    0.258827         49.3388         0.101236         171.562         0.101229         171.542         0.258786         49.2726
0.62                    0.261862         43.9279         0.100611         165.221         0.100606           165.2         0.261794         43.8625
0.63                    0.264428         38.8844        0.0999581         158.999        0.0999562         158.977         0.264333         38.8204
0.64                    0.266455         34.1695        0.0992948         152.888        0.0992955         152.864         0.266332         34.1075
0.65                    0.267894         29.7482        0.0986353         146.876        0.0986385         146.852         0.267743         29.6888
0.66                    0.268715         25.5903        0.0979908         140.955        0.0979965         140.929         0.268537          25.534
0.67                      0.2689         21.6693        0.0973698         135.114        0.0973777         135.087         0.268697         21.6166
0.68                    0.268444         17.9625        0.0967783         129.344        0.0967883         129.316         0.268217         17.9138
0.69                    0.267345         14.4505        0.0962203         123.636        0.0962324         123.608         0.267096         14.4062
0.7                      0.26561         11.1169        0.0956981         117.982        0.0957121         117.953          0.26534         11.0774
0.71                    0.263248         7.94784        0.0952129         112.373        0.0952287         112.344          0.26296         7.91355
0.72                    0.260272         4.93185        0.0947647         106.804        0.0947824         106.774         0.259966         4.90323
0.73                    0.256695         2.05957        0.0943532         101.267        0.0943725         101.237         0.256374         2.03718
0.74                    0.252529       -0.676258        0.0939773         95.7569        0.0939983         95.7258         0.252196       -0.691786
0.75                    0.247789        -3.28079        0.0936358         90.2676        0.0936583         90.2361         0.247445         -3.2887
0.76                    0.242485        -5.75682        0.0933272          84.794        0.0933513         84.7623         0.242134        -5.75627
0.77                    0.236628        -8.10445        0.0930496         79.3312        0.0930752         79.2994         0.236274        -8.09452
0.78                     0.23023        -10.3205         0.092801         73.8743         0.092828         73.8425         0.229877        -10.3003
0.79                    0.223302        -12.3981        0.0925788          68.419        0.0926072         68.3872         0.222955        -12.3664
0.8                     0.215859        -14.3252        0.0923797         62.9608        0.0924096         62.9292         0.215525        -14.2813
0.81                    0.207924        -16.0845        0.0922004         57.4959        0.0922316         57.4645         0.207608        -16.0273
0.82                    0.199527        -17.6514        0.0920365         52.0207        0.0920691         51.9897         0.199235        -17.5801
0.83                    0.190714        -18.9933        0.0918837         46.5324        0.0919177         46.5017         0.190454        -18.9072
0.84                    0.181549         -20.068        0.0917373         41.0285        0.0917727         40.9983         0.181327        -19.9667
0.85                    0.172118        -20.8224        0.0915927         35.5073        0.0916295         35.4778          0.17194        -20.7057
0.86                    0.162539        -21.1914        0.0914458         29.9679         0.091484         29.9391         0.162411        -21.0594
0.87                     0.15296        -21.0976         0.091293         24.4097        0.0913326         24.3816         0.152888         -20.951
0.88                     0.14357         -20.453        0.0911317         18.8326        0.0911727         18.8054         0.143559        -20.2934
0.89                    0.134602        -19.1645        0.0909605         13.2368        0.0910029         13.2106         0.134657        -18.9948
0.9                     0.126332        -17.1458         0.090779         7.62225        0.0908229         7.59711         0.126456        -16.9707
0.91                    0.119073        -14.3386        0.0905881         1.98874        0.0906335         1.96473         0.119269        -14.1655
0.92                    0.113158        -10.7441        0.0903894        -3.66456        0.0904364        -3.68734         0.113424        -10.5832
0.93                    0.108901        -6.45705        0.0901852        -9.33925        0.0902337         -9.3608         0.109232        -6.32085
0.94                    0.106546        -1.68535        0.0899777        -15.0378        0.0900278        -15.0581         0.106932        -1.58629
0.95                     0.10621         3.26892        0.0897688        -20.7638        0.0898206        -20.7828         0.106636         3.32098
0.96                    0.107855         8.07128        0.0895599        -26.5213        0.0896133        -26.5389         0.108302         8.07172
0.97                     0.11129         12.4341        0.0893505        -32.3155        0.0894056        -32.3317         0.111738         12.3841
0.98                    0.116225         16.1713        0.0891392        -38.1516        0.0891959        -38.1665         0.116655         16.0766
0.99                    0.122327          19.208        0.0889224        -44.0354        0.0889807        -44.0489         0.122721         19.0766
1                       0.129269         21.5564        0.0886951        -49.9722        0.0887549        -49.9842         0.129614          21.397
1.01                    0.136766         23.2815        0.0884507         -55.967        0.0885119        -55.9777         0.137049         23.1023
1.02                     0.14458         24.4715        0.0881811        -62.0243        0.0882437        -62.0335         0.144791         24.2797
1.03                    0.152528         25.2187        0.0878775        -68.1474        0.0879413        -68.1552          0.15266         25.0205
1.04                    0.160478          25.609        0.0875305        -74.3392        0.0875953        -74.3455         0.160523           25.41
1.05                    0.168336         25.7174        0.0871303         -80.601         0.087196        -80.6059         0.168291         25.5223
1.06                    0.176051         25.6066        0.0866677        -86.9338        0.0867341        -86.9371         0.175914         25.4196
1.07                    0.183599         25.3271        0.0861338        -93.3371        0.0862007        -93.3389         0.183369          25.152
1.08                    0.190984         24.9181        0.0855206        -99.8102        0.0855877        -99.8104         0.190664         24.7583
1.09                     0.19823         24.4086         0.084821        -106.351        0.0848881         -106.35         0.197823         24.2669
1.1                     0.205374         23.8179        0.0840292        -112.958        0.0840962        -112.955         0.204887          23.697
1.11                    0.212463         23.1576        0.0831407        -119.628        0.0832073        -119.623         0.211904         23.0594
1.12                    0.219545          22.432        0.0821524        -126.358        0.0822183        -126.352         0.218924         22.3581
1.13                    0.226665         21.6395        0.0810623        -133.145        0.0811273        -133.136         0.225995         21.5909
1.14                    0.233859         20.7746        0.0798703        -139.984        0.0799341        -139.974         0.233153         20.7516
1.15                     0.24115         19.8285        0.0785773        -146.873        0.0786397        -146.861         0.240423          19.831
1.16                    0.248541         18.7915         0.077186        -153.806        0.0772466        -153.792          0.24781         18.8186
1.17                    0.256022         17.6536           0.0757        -160.781        0.0757588        -160.765         0.255302         17.7042
1.18                    0.263561         16.4064        0.0741248        -167.792        0.0741813        -167.774         0.262867         16.4785
1.19                    0.271109         15.0432        0.0724667        -174.836        0.0725207        -174.816         0.270459         15.1345
1.2                     0.278607         13.5597        0.0707333         178.092        0.0707847         178.113         0.278014         13.6677
1.21                    0.285982         11.9545        0.0689333         170.995        0.0689818         171.018          0.28546         12.0765
1.22                    0.293157         10.2285        0.0670762         163.877        0.0671216         163.902         0.292716         10.3615
1.23                    0.300052         8.38457        0.0651723         156.741        0.0652143         156.768         0.299701         8.52577
1.24                    0.306588         6.42738        0.0632325          149.59         0.063271         149.619         0.306335         6.57385
1.25                    0.312691         4.36248         0.061268         142.427        0.0613029         142.458         0.312539          4.5115
1.26                    0.318292         2.19596        0.0592903         135.253        0.0593214         135.285         0.318243           2.345
1.27                    0.323331      -0.0660134         0.057311         128.068        0.0573382         128.102         0.323383       0.0807504
1.28                    0.327753         -2.4177        0.0553415         120.873        0.0553647         120.909         0.327904        -2.27529
1.29                    0.331511        -4.85397        0.0533926         113.666        0.0534119         113.704         0.331756        -4.71769
1.3                     0.334567        -7.37052         0.051475         106.444        0.0514903         106.483         0.334899        -7.24189
1.31                    0.336886        -9.96404         0.049598         99.2025        0.0496094          99.243         0.337298        -9.84425
1.32                     0.33844        -12.6322        0.0477704          91.935        0.0477778         91.9768         0.338923        -12.5222
1.33                    0.339202        -15.3735        0.0459993         84.6332        0.0460029         84.6762         0.339748        -15.2741
1.34                    0.339152        -18.1878        0.0442905         77.2872        0.0442903         77.3312          0.33975        -18.0995
1.35                     0.33827        -21.0753        0.0426483         69.8852        0.0426445         69.9298         0.338912        -20.9987
1.36                     0.33654        -24.0375        0.0410752         62.4141        0.0410679         62.4588         0.337217        -23.9727
1.37                    0.333948        -27.0766        0.0395724         54.8595        0.0395616          54.904         0.334651        -27.0238
1.38                    0.330484        -30.1957        0.0381392         47.2068        0.0381252         47.2506         0.331204        -30.1551
1.39                     0.32614        -33.3988        0.0367741         39.4415         0.036757         39.4842         0.326869        -33.3705
1.4                     0.320914        -36.6914        0.0354743         31.5503        0.0354543         31.5911         0.321644        -36.6754
1.41                    0.314805        -40.0801        0.0342365         23.5215        0.0342138         23.5597          0.31553        -40.0765
1.42                    0.307821        -43.5735        0.0330575         15.3456        0.0330323         15.3806         0.308533        -43.5823
1.43                     0.29997        -47.1824        0.0319338         7.01685        0.0319064         7.04767         0.300662        -47.2036
1.44                    0.291268        -50.9201         0.030863        -1.46756        0.0308337        -1.44171         0.291932        -50.9536
1.45                    0.281733        -54.8036        0.0298432         -10.106        0.0298122         -10.086         0.282365         -54.849
1.46                    0.271391        -58.8538        0.0288738         -18.893        0.0288417        -18.8797         0.271985        -58.9109
1.47                    0.260271         -63.097        0.0279557        -27.8187        0.0279227        -27.8131         0.260824        -63.1652
1.48                    0.248412        -67.5659        0.0270907        -36.8698        0.0270573        -36.8726         0.248921        -67.6446
1.49                    0.235862         -72.302        0.0262824        -46.0295         0.026249        -46.0414         0.236327        -72.3903
1.5                     0.222685        -77.3571        0.0255353        -55.2786        0.0255024        -55.3001         0.223107        -77.4541
1.51                    0.208964        -82.7977        0.0248549        -64.5965         0.024823         -64.628         0.209346        -82.9023
1.52                    0.194812        -88.7091        0.0242477        -73.9629        0.0242172        -74.0045          0.19516        -88.8203
1.53                    0.180385        -95.2019        0.0237203         -83.359        0.0236917        -83.4106         0.180705        -95.3184
1.54                    0.165896        -102.419        0.0232795          -92.77        0.0232533        -92.8311         0.166197        -102.539
1.55                    0.151642        -110.543        0.0229316        -102.186        0.0229081        -102.256         0.151933        -110.665
1.56                    0.138031        -119.797        0.0226821        -111.603        0.0226615        -111.681         0.138322        -119.918
1.57                    0.125614        -130.427        0.0225346        -121.027        0.0225173        -121.112         0.125914        -130.543
1.58                    0.115105         -142.64        0.0224908        -130.468         0.022477        -130.559          0.11542        -142.743
1.59                     0.10734        -156.461        0.0225496        -139.945        0.0225396        -140.039         0.107676        -156.542
1.6                     0.103129        -171.554        0.0227071        -149.476        0.0227009        -149.573         0.103483        -171.603
1.61                    0.102976         172.859        0.0229558        -159.086        0.0229537        -159.184         0.103342         172.847
1.62                    0.106835         157.762        0.0232854        -168.794        0.0232873        -168.891         0.107206         157.784
1.63                    0.114118         143.923        0.0236826        -178.618        0.0236886        -178.713         0.114491         143.969
1.64                    0.123947          131.67         0.024132         171.431         0.024142          171.34         0.124321         131.732
1.65                    0.135423         120.977        0.0246165         161.346        0.0246303          161.26         0.135802         121.045
1.66                    0.147782         111.642        0.0251183         151.126        0.0251359         151.046         0.148169          111.71
1.67                     0.16042         103.429        0.0256196         140.775        0.0256407         140.702          0.16082         103.493
1.68                    0.172886          96.128        0.0261033         130.297        0.0261275         130.232         0.173301          96.184
1.69                    0.184846         89.5688        0.0265533         119.702        0.0265802         119.645         0.185277         89.6157
1.7                     0.196061         83.6228        0.0269552         108.998        0.0269842         108.949         0.196506         83.6593
1.71                    0.206362         78.1931        0.0272962         98.1918        0.0273269         98.1529         0.206818         78.2187
1.72                    0.215639         73.2083        0.0275657         87.2925        0.0275975         87.2631         0.216101         73.2223
1.73                    0.223828         68.6148         0.027755          76.306        0.0277873         76.2863          0.22429         68.6172
1.74                      0.2309         64.3728        0.0278575         65.2377        0.0278896         65.2277         0.231354         64.3641
1.75                    0.236855         60.4527        0.0278685         54.0915        0.0278997          54.091         0.237295         60.4333
1.76                    0.241719         56.8321        0.0277853         42.8702         0.027815         42.8792         0.242137         56.8028
1.77                    0.245531         53.4949         0.027607         31.5758        0.0276346         31.5936         0.245922         53.4567
1.78                    0.248348         50.4296        0.0273347         20.2095        0.0273595         20.2357         0.248706         50.3838
1.79                    0.250236         47.6293        0.0269711         8.77177        0.0269926         8.80575         0.250557          47.577
1.8                     0.251274         45.0906        0.0265203        -2.73701        0.0265382        -2.69592         0.251555         45.0328
1.81                     0.25155         42.8135        0.0259884        -14.3165        0.0260021        -14.2696          0.25179         42.7515
1.82                    0.251166         40.8012        0.0253824        -25.9664        0.0253917        -25.9145         0.251365         40.7362
1.83                    0.250239         39.0592        0.0247106        -37.6861        0.0247154        -37.6306         0.250397         38.9921
1.84                    0.248904         37.5943        0.0239822        -49.4741        0.0239824        -49.4164         0.249022         37.5258
1.85                    0.247318         36.4126        0.0232072         -61.328        0.0232028        -61.2698         0.247397         36.3436
1.86                    0.245658         35.5179         0.022396        -73.2442        0.0223872        -73.1873         0.245698         35.4492
1.87                    0.244119         34.9083        0.0215592         -85.217        0.0215464        -85.1636         0.244121         34.8407
1.88                    0.242911         34.5737        0.0207075        -97.2389         0.020691         -97.191         0.242875         34.5082
1.89                    0.242249         34.4928        0.0198513          -109.3        0.0198316        -109.259         0.242176         34.4306
1.9                     0.242339         34.6309        0.0190005        -121.386        0.0189782        -121.356          0.24223         34.5734
1.91                    0.243365         34.9404        0.0181643        -133.482        0.0181401        -133.464         0.243222          34.889
1.92                    0.245471         35.3621        0.0173511        -145.568        0.0173258        -145.564         0.245297         35.3183
1.93                    0.248748         35.8299        0.0165683        -157.623        0.0165425        -157.634          0.24855         35.7948