! TOUCHSTONE file generated by CST MICROWAVE STUDIO
! Date and time: Thu Jun 18 01:33:03 2020
! Project name: 12_June_3_vivaldi_Gen1_end_to_end_trial1a1.cst
! Parameters = {DL_X1=27; DL_X2=6; DL_Y1=-142; DL_Y2=-114; DL_thickness=0.5; DL_tip_pos=-142; DL_zenith=-80; Gt=0.01; R=10; Rline2_pos=-115; Rline_pos=-140; St=1.57; Ws=180; Z_port=130; bottom_stripW=40; bumpR=12; bumpX=21; bumpY=-18; circleR=25; esosorbT=3.2; esosorbW=15; feed_pos=14; feed_slot1_pos=4; feed_slot1_width=2; feed_slot2_pos=12; feed_slot2_width=2; feed_x1=0.7; feed_x2=1.2; feed_x3=6; feed_x4=9; feed_x5=32; feed_y3=4; feed_y4=6; gndX1=5; gndX2=15; gndY1=6; gndY2=11; gnd_slotW=1.5; gnd_slotW2=2; gnd_slot_pos=3; gnd_slot_pos2=8; l=160; le=90; lumpedR=150; lumpedR2=100; p1x=10; p1y=-160; p2x=1; p2y=-50; p3x=70; p3y=-70; p4x=35; p4y=-45; port_position=20; rect_slotL=17; slotW=1; slot_newW=1; top_stripW=3; via_hole_rad=0.5; wstrip=1.9}
! Header version: 2015
! Port assignment regex: !\s*Touchstone port\s*([0-9]+)\s*=\s*CST MWS port\s*([0-9]+)\s*\(\"(.*)\"\)(\s*mode\s*([0-9]+))?.*
! Touchstone port assignment:
! Touchstone port 1 = CST MWS port 1 ("")
! Touchstone port 2 = CST MWS port 2 ("")
# GHz S MA R 50
0                       0.766268     9.11449e-14      0.000670039             180      6.01163e-05             180          0.76628     9.11434e-14
0.01                    0.766416        -1.95293      0.000671159         154.285      6.96082e-05        -170.736         0.766426        -1.95318
0.02                    0.766844        -3.91672      0.000674258         128.668       9.3009e-05        -172.188         0.766852        -3.91721
0.03                    0.767509        -5.90165      0.000678579         103.227       0.00012396         178.337         0.767514        -5.90233
0.04                    0.768346        -7.91683      0.000682969         78.0084      0.000159868         164.781         0.768347        -7.91762
0.05                     0.76927        -9.96985      0.000686006         53.0167      0.000200082         149.213         0.769264        -9.97068
0.06                    0.770184        -12.0666       0.00068614         28.2127      0.000244657         132.641         0.770171        -12.0673
0.07                    0.770987         -14.211      0.000681829         3.51117      0.000293907         115.584         0.770967        -14.2116
0.08                    0.771582        -16.4057       0.00067168        -21.2237      0.000348255         98.3215         0.771555        -16.4059
0.09                     0.77188        -18.6516      0.000654609        -46.1887      0.000408181         81.0102         0.771845        -18.6514
0.1                     0.771806        -20.9488      0.000630072        -71.6644       0.00047421         63.7368         0.771764         -20.948
0.11                    0.771298        -23.2969      0.000598451        -98.0525       0.00054692         46.5471          0.77125        -23.2953
0.12                    0.770314        -25.6951      0.000561751        -125.925      0.000626945         29.4626         0.770262        -25.6926
0.13                    0.768825         -28.143      0.000524825        -156.041      0.000714996         12.4889          0.76877        -28.1396
0.14                    0.766816         -30.641      0.000497161         170.831      0.000811866          -4.378         0.766761        -30.6365
0.15                    0.764282        -33.1901      0.000493984         134.636      0.000918444        -21.1482         0.764228        -33.1844
0.16                    0.761224        -35.7924      0.000532783         97.0721       0.00103572        -37.8356         0.761174        -35.7856
0.17                    0.757642        -38.4513      0.000624421         61.0456       0.00116482        -54.4567         0.757598        -38.4433
0.18                    0.753536        -41.1712       0.00076911         28.3552       0.00130696        -71.0293           0.7535         -41.162
0.19                    0.748898        -43.9576      0.000961832       -0.978873       0.00146349        -87.5718         0.748871        -43.9473
0.2                     0.743709         -46.817       0.00119789        -27.6964        0.0016359        -104.103         0.743693        -46.8056
0.21                     0.73794        -49.7566       0.00147444        -52.5439       0.00182578        -120.641         0.737937        -49.7441
0.22                    0.731552        -52.7839       0.00179024         -76.078       0.00203484        -137.205         0.731562        -52.7703
0.23                    0.724492        -55.9071       0.00214502        -98.6811       0.00226487        -153.811         0.724517        -55.8922
0.24                    0.716699        -59.1342       0.00253906        -120.613       0.00251774        -170.476         0.716742         -59.118
0.25                    0.708108        -62.4735       0.00297294        -142.052       0.00279535         172.785         0.708171        -62.4557
0.26                    0.698646         -65.933       0.00344732        -163.125        0.0030996         155.958         0.698733        -65.9136
0.27                    0.688243        -69.5211       0.00396277         176.077       0.00343234         139.031         0.688358        -69.4997
0.28                    0.676831        -73.2458        0.0045197         155.486       0.00379532         121.993         0.676981        -73.2224
0.29                    0.664347        -77.1157       0.00511817         135.052       0.00419009         104.836          0.66454        -77.0901
0.3                     0.650739        -81.1397       0.00575784         114.734       0.00461798         87.5527         0.650985        -81.1119
0.31                    0.635965         -85.327       0.00643781         94.5028       0.00507998         70.1378         0.636272        -85.2972
0.32                    0.619995        -89.6879       0.00715654         74.3344       0.00557665         52.5886         0.620375        -89.6564
0.33                    0.602817        -94.2331       0.00791175         54.2108       0.00610806          34.904         0.603281        -94.2006
0.34                    0.584439        -98.9746        0.0087003         34.1187       0.00667365          17.085         0.584996         -98.942
0.35                    0.564889        -103.926       0.00951816         14.0487       0.00727222       -0.865259         0.565549        -103.894
0.36                    0.544226        -109.101        0.0103603        -6.00463       0.00790178        -18.9418         0.544994        -109.073
0.37                    0.522537        -114.517        0.0112209        -26.0439       0.00855958        -37.1374         0.523417        -114.493
0.38                    0.499944        -120.192        0.0120932        -46.0683       0.00924206        -55.4428         0.500937        -120.176
0.39                    0.476608        -126.148        0.0129694        -66.0743        0.0099449        -73.8466         0.477711        -126.141
0.4                     0.452731        -132.407        0.0138417        -86.0554        0.0106631        -92.3356         0.453936        -132.413
0.41                    0.428554        -138.997        0.0147015        -106.003        0.0113911        -110.895         0.429852        -139.019
0.42                    0.404363        -145.946        0.0155405        -125.907        0.0121232        -129.508         0.405743        -145.986
0.43                    0.380485        -153.284        0.0163506        -145.754        0.0128533        -148.157         0.381934        -153.346
0.44                    0.357286        -161.042        0.0171245        -165.531        0.0135756        -166.825         0.358793        -161.127
0.45                    0.335164        -169.242         0.017856         174.775        0.0142849         174.508         0.336717        -169.353
0.46                    0.314534        -177.901        0.0185401          155.18        0.0149767         155.859         0.316125        -178.037
0.47                    0.295814         172.986        0.0191736         135.696        0.0156471         137.246         0.297435         172.825
0.48                    0.279388         163.451        0.0197546         116.335        0.0162937         118.682         0.281035         163.267
0.49                    0.265574         153.562        0.0202831         97.1072         0.016915         100.182         0.267242         153.358
0.5                     0.254583         143.427        0.0207604          78.021        0.0175105         81.7562         0.256268         143.208
0.51                    0.246484         133.194        0.0211889         59.0815        0.0180806         63.4117         0.248181         132.964
0.52                    0.241191         123.028        0.0215721         40.2924        0.0186266         45.1543          0.24289         122.792
0.53                    0.238462         113.097        0.0219138         21.6544        0.0191503         26.9868         0.240153         112.859
0.54                     0.23794         103.543        0.0222185         3.16685        0.0196536         8.91014          0.23961         103.306
0.55                    0.239197         94.4727        0.0224905        -15.1726         0.020139        -9.07699         0.240835         94.2371
0.56                    0.241786         85.9457        0.0227342        -33.3679        0.0206087        -26.9769         0.243378         85.7126
0.57                    0.245281         77.9852        0.0229538        -51.4235        0.0210649        -44.7933         0.246815         77.7546
0.58                    0.249305         70.5845        0.0231533         -69.345        0.0215098        -62.5308          0.25077         70.3564
0.59                    0.253544         63.7173        0.0233361        -87.1381        0.0219451        -80.1942         0.254932         63.4917
0.6                     0.257748         57.3466        0.0235056        -104.809        0.0223723        -97.7889         0.259052         57.1235
0.61                    0.261728         51.4298        0.0236643        -122.363        0.0227925         -115.32         0.262945         51.2094
0.62                    0.265348          45.923         0.023815        -139.807        0.0232065        -132.792         0.266474         45.7057
0.63                    0.268507         40.7835        0.0239598        -157.144        0.0236149         -150.21         0.269543         40.5696
0.64                    0.271136         35.9706        0.0241009        -174.381         0.024018        -167.577         0.272083         35.7606
0.65                    0.273183         31.4474        0.0242403          168.48        0.0244159         175.104         0.274045         31.2414
0.66                     0.27461         27.1807          0.02438         151.433        0.0248088         157.829         0.275388         26.9789
0.67                    0.275384         23.1423        0.0245222         134.475        0.0251968         140.598         0.276084         22.9446
0.68                    0.275483         19.3084        0.0246691         117.603          0.02558         123.407         0.276108         19.1148
0.69                     0.27489         15.6599         0.024823         100.812        0.0259586         106.256         0.275444         15.4701
0.7                     0.273601         12.1818        0.0249862         84.0991        0.0263327          89.144         0.274086         11.9956
0.71                    0.271619         8.86201        0.0251611         67.4588        0.0267027         72.0689         0.272038         8.67915
0.72                     0.26896         5.69071        0.0253503         50.8863        0.0270687         55.0306         0.269315         5.51102
0.73                    0.265645         2.65906        0.0255562         34.3763        0.0274313         38.0281         0.265937         2.48252
0.74                    0.261697       -0.241221        0.0257812         17.9233        0.0277908         21.0607         0.261929       -0.414429
0.75                    0.257139        -3.01809        0.0260277         1.52051         0.028148         4.12804         0.257311        -3.18761
0.76                    0.251984        -5.67876         0.026298        -14.8387        0.0285036        -12.7704         0.252099          -5.844
0.77                    0.246238        -8.22868        0.0265945         -31.162        0.0288586        -29.6354         0.246298        -8.38892
0.78                    0.239897        -10.6703         0.026919        -47.4575        0.0292141         -46.468         0.239907        -10.8247
0.79                    0.232951        -13.0015        0.0272733        -63.7338        0.0295714        -63.2697         0.232916        -13.1491
0.8                     0.225391        -15.2138        0.0276588             -80        0.0299317        -80.0423         0.225316        -15.3539
0.81                    0.217215        -17.2918        0.0280761        -96.2651        0.0302962        -96.7885         0.217108        -17.4236
0.82                    0.208435        -19.2114        0.0285255        -112.539        0.0306659         -113.51         0.208304        -19.3343
0.83                    0.199087        -20.9398        0.0290064        -128.829        0.0310417        -130.211         0.198939        -21.0537
0.84                    0.189229        -22.4348        0.0295177        -145.145        0.0314242        -146.894         0.189072        -22.5397
0.85                    0.178949        -23.6442        0.0300574        -161.493        0.0318136        -163.562         0.178789        -23.7407
0.86                    0.168359        -24.5051         0.030623        -177.878        0.0322101         179.782         0.168201        -24.5941
0.87                    0.157599        -24.9423        0.0312113         165.694        0.0326137         163.135         0.157446        -25.0253
0.88                    0.146831        -24.8657        0.0318188          149.22        0.0330239         146.496         0.146684        -24.9444
0.89                    0.136246        -24.1677        0.0324415         132.699        0.0334403         129.862         0.136105        -24.2441
0.9                     0.126073        -22.7218        0.0330751          116.13        0.0338623          113.23         0.125933        -22.7978
0.91                    0.116589        -20.3873        0.0337152         99.5127        0.0342891         96.5991         0.116445        -20.4638
0.92                    0.108139        -17.0281        0.0343571         82.8503        0.0347197         79.9679         0.107982        -17.1042
0.93                    0.101138        -12.5579        0.0349962         66.1445        0.0351529         63.3352         0.100963        -12.6301
0.94                   0.0960515        -7.01725        0.0356279         49.3995        0.0355873            46.7        0.0958524        -7.07846
0.95                   0.0933168       -0.657012        0.0362477         32.6193        0.0360215         30.0624        0.0930938       -0.697992
0.96                   0.0932216         6.04258        0.0368515         15.8094        0.0364539         13.4225        0.0929801         6.02997
0.97                   0.0957911         12.4856        0.0374356         -1.0248        0.0368831        -3.21873        0.0955415          12.505
0.98                    0.100769         18.1611         0.037997        -17.8766        0.0373078        -19.8603         0.100523         18.2101
0.99                    0.107705         22.7854         0.038533        -34.7398        0.0377269        -36.5008         0.107474         22.8577
1                       0.116089         26.3073        0.0390421        -51.6083        0.0381397        -53.1385          0.11588         26.3955
1.01                    0.125453         28.8271        0.0395232        -68.4764        0.0385456        -69.7723         0.125271         28.9247
1.02                    0.135424         30.5075        0.0399755        -85.3383         0.038944        -86.4004         0.135273         30.6093
1.03                    0.145736         31.5153        0.0403991        -102.189        0.0393345        -103.022         0.145615         31.6177
1.04                    0.156213         31.9935        0.0407942        -119.025        0.0397166        -119.636          0.15612         32.0942
1.05                    0.166747         32.0528        0.0411611         -135.84        0.0400899         -136.24         0.166681         32.1504
1.06                    0.177269         31.7739        0.0415009        -152.632        0.0404541        -152.834         0.177226         31.8676
1.07                    0.187725         31.2137        0.0418146        -169.394        0.0408087        -169.414         0.187703         31.3035
1.08                     0.19806         30.4139         0.042104         173.875        0.0411537         174.019         0.198055            30.5
1.09                    0.208208         29.4075        0.0423713          157.18        0.0414895          157.47         0.208218         29.4904
1.1                     0.218097         28.2244        0.0426192         140.525        0.0418168          140.94          0.21812         28.3047
1.11                    0.227654         26.8935        0.0428509         123.911        0.0421367          124.43         0.227688         26.9717
1.12                    0.236818         25.4433        0.0430699         107.341        0.0424505         107.944         0.236863         25.5203
1.13                    0.245553         23.9009        0.0432801         90.8163        0.0427597         91.4805         0.245609          23.977
1.14                    0.253848         22.2893        0.0434852          74.337        0.0430662         75.0418         0.253916         22.3649
1.15                    0.261721         20.6257         0.043689         57.9033        0.0433714         58.6282         0.261801         20.7011
1.16                    0.269204         18.9204        0.0438952         41.5147        0.0436771         42.2401         0.269298         18.9957
1.17                    0.276336         17.1766        0.0441075         25.1702         0.043985         25.8776         0.276445         17.2517
1.18                    0.283149         15.3917        0.0443296          8.8687         0.044297         9.54137         0.283273         15.4666
1.19                    0.289651         13.5597        0.0445653         -7.3912        0.0446153        -6.76836         0.289792         13.6343
1.2                     0.295828          11.674        0.0448186        -23.6114        0.0449425        -23.0511         0.295985         11.7482
1.21                    0.301642         9.72973        0.0450935        -39.7946        0.0452814        -39.3081         0.301814         9.80326
1.22                     0.30704         7.72536         0.045394        -55.9442         0.045635        -55.5397         0.307226         7.79826
1.23                    0.311964         5.66356        0.0457242        -72.0643        0.0460067        -71.7476         0.312162         5.73584
1.24                    0.316367         3.55014        0.0460876         -88.159        0.0463994        -87.9342         0.316576           3.622
1.25                     0.32022         1.39279        0.0464873        -104.235        0.0468163        -104.102         0.320439         1.46439
1.26                    0.323519       -0.801205        0.0469259        -120.297          0.04726        -120.255         0.323745       -0.729422
1.27                     0.32628        -3.02683        0.0474054         -136.35        0.0477328        -136.396         0.326513        -2.95455
1.28                    0.328535        -5.28311        0.0479273        -152.402        0.0482366        -152.529         0.328774        -5.20981
1.29                    0.330318         -7.5736        0.0484925        -168.456        0.0487734        -168.658         0.330564        -7.49877
1.3                     0.331653        -9.90633        0.0491018         175.482        0.0493447         175.215         0.331906        -9.82948
1.31                    0.332543        -12.2923        0.0497557         159.408        0.0499522         159.086         0.332804        -12.2129
1.32                    0.332961        -14.7435        0.0504547         143.317        0.0505978         142.951         0.333233         -14.661
1.33                    0.332855        -17.2707        0.0511992         127.205        0.0512831         126.806         0.333142        -17.1848
1.34                    0.332156        -19.8817        0.0519892         111.067        0.0520097         110.648          0.33246         -19.792
1.35                    0.330784        -22.5798        0.0528247         94.8997        0.0527789         94.4725         0.331109        -22.4861
1.36                    0.328671        -25.3645        0.0537048         78.6978        0.0535914         78.2735         0.329022        -25.2665
1.37                    0.325771        -28.2319        0.0546282          62.458        0.0544473         62.0472         0.326151        -28.1297
1.38                    0.322067        -31.1777        0.0555928         46.1757        0.0553458          45.789          0.32248        -31.0713
1.39                    0.317575         -34.199        0.0565959         29.8485        0.0562855         29.4944         0.318024        -34.0889
1.4                     0.312335         -37.298        0.0576341         13.4739        0.0572645         13.1606         0.312824        -37.1845
1.41                    0.306398        -40.4836         0.058704        -2.94969        0.0582802        -3.21532         0.306929        -40.3674
1.42                    0.299807        -43.7725        0.0598021         -19.423        0.0593303        -19.6355         0.300381        -43.6542
1.43                    0.292582        -47.1887         0.060925        -35.9469        0.0604123        -36.1022         0.293199        -47.0692
1.44                    0.284708        -50.7618        0.0620695        -52.5222        0.0615235        -52.6172         0.285369        -50.6419
1.45                    0.276138         -54.524        0.0632321        -69.1495        0.0626611        -69.1825         0.276838        -54.4046
1.46                    0.266799        -58.5068        0.0644087        -85.8302        0.0638214        -85.8007         0.267536        -58.3886
1.47                    0.256615        -62.7397        0.0655942        -102.566        0.0649999        -102.474         0.257385        -62.6235
1.48                    0.245534        -67.2492        0.0667825        -119.357        0.0661902        -119.205          0.24633        -67.1357
1.49                    0.233545        -72.0619        0.0679656        -136.205        0.0673846        -135.996         0.234363        -71.9516
1.5                     0.220705        -77.2092        0.0691346        -153.109        0.0685739        -152.845         0.221537        -77.1028
1.51                    0.207137        -82.7345        0.0702794        -170.067        0.0697479        -169.753         0.207976        -82.6326
1.52                    0.193032        -88.7035        0.0713899         172.923        0.0708959         173.283         0.193873        -88.6062
1.53                    0.178644        -95.2143        0.0724563         155.866        0.0720075         156.266         0.179477        -95.1221
1.54                    0.164276        -102.409        0.0734694         138.768        0.0730728         139.202         0.165094        -102.321
1.55                    0.150285        -110.481        0.0744209         121.632        0.0740826         122.094          0.15108        -110.396
1.56                    0.137101        -119.673        0.0753031         104.464        0.0750282         104.949         0.137866        -119.589
1.57                    0.125261        -130.252        0.0761086          87.271        0.0759009          87.771         0.125989        -130.165
1.58                    0.115436        -142.437        0.0768299         70.0576        0.0766922         70.5666         0.116123        -142.341
1.59                    0.108418        -156.249        0.0774599         52.8301        0.0773936         53.3421         0.109059        -156.142
1.6                     0.104966        -171.334        0.0779919         35.5972        0.0779973         36.1057          0.10556        -171.217
1.61                     0.10554         173.093         0.078421         18.3675        0.0784968         18.8664          0.10609         173.215
1.62                    0.110056         158.004        0.0787447         1.15153        0.0788885         1.63558         0.110569         158.118
1.63                    0.117895         144.144        0.0789642        -16.0398        0.0791725        -15.5759         0.118384         144.241
1.64                     0.12816         131.841        0.0790846        -33.1952        0.0793527        -32.7566         0.128636         131.915
1.65                    0.139947         121.079        0.0791146        -50.3054        0.0794369        -49.8961         0.140419         121.128
1.66                    0.152507          111.68         0.079066         -67.362        0.0794363        -66.9857         0.152978         111.706
1.67                    0.165284         103.422        0.0789525        -84.3594        0.0793638        -84.0194         0.165755         103.426
1.68                    0.177891         96.0956        0.0787882        -101.294        0.0792334        -100.993         0.178357         96.0802
1.69                    0.190064         89.5219        0.0785871        -118.164        0.0790588        -117.902          0.19052           89.49
1.7                     0.201612         83.5519        0.0783627        -134.969        0.0788535        -134.749         0.202051         83.5064
1.71                    0.212378         78.0662        0.0781275        -151.709          0.07863        -151.531         0.212794           78.01
1.72                    0.222205         72.9728        0.0778934        -168.388        0.0784007         -168.25         0.222593         72.9085
1.73                    0.230935         68.2061         0.077672         174.994        0.0781776         175.091          0.23129         68.1363
1.74                    0.238409         63.7257        0.0774746         158.432        0.0779723          158.49         0.238728         63.6528
1.75                    0.244487         59.5142        0.0773117         141.921         0.077796         141.942         0.244769         59.4402
1.76                    0.249076         55.5735        0.0771929         125.454         0.077659         125.441         0.249322         55.5002
1.77                    0.252148         51.9203        0.0771259         109.022        0.0775697         108.979         0.252361         51.8488
1.78                    0.253763          48.579         0.077116         92.6165        0.0775341         92.5454         0.253946         48.5108
1.79                    0.254065         45.5773        0.0771655         76.2269        0.0775551         76.1315         0.254223         45.5131
1.8                      0.25328         42.9379        0.0772735         59.8431        0.0776327         59.7272         0.253417         42.8784
1.81                    0.251685         40.6739        0.0774363         43.4556        0.0777638          43.323         0.251807         40.6193
1.82                    0.249579         38.7839        0.0776479         27.0572        0.0779428         26.9113         0.249692         38.7343
1.83                     0.24724         37.2517        0.0779005         10.6415        0.0781631         10.4861          0.24735         37.2068
1.84                    0.244895         36.0489        0.0781862        -5.79566        0.0784169        -5.95681         0.245006         36.0083
1.85                    0.242702         35.1422         0.078497        -22.2561         0.078697        -22.4201         0.242818         35.1051
1.86                    0.240756         34.5022        0.0788256        -38.7418        0.0789966         -38.906         0.240879         34.4676
1.87                     0.23912         34.1093        0.0791655        -55.2535        0.0793095        -55.4151         0.239251         34.0765
1.88                     0.23787         33.9558        0.0795103         -71.791        0.0796301         -71.948         0.238008          33.924
1.89                    0.237133           34.04         0.079854        -88.3554        0.0799522        -88.5058         0.237278         34.0083
1.9                     0.237109         34.3539        0.0801896        -104.946        0.0802693        -105.089         0.237259          34.322
1.91                    0.238059         34.8691        0.0805099        -121.563        0.0805742        -121.697         0.238214         34.8367
1.92                    0.240257         35.5263        0.0808068        -138.203        0.0808589        -138.328         0.240415         35.4936
1.93                    0.243916         36.2353        0.0810726        -154.864        0.0811157        -154.981         0.244078         36.2023